
                                 *****************
                                 * O   R   C   A *
                                 *****************

                                            #,                                       
                                            ###                                      
                                            ####                                     
                                            #####                                    
                                            ######                                   
                                           ########,                                 
                                     ,,################,,,,,                         
                               ,,#################################,,                 
                          ,,##########################################,,             
                       ,#########################################, ''#####,          
                    ,#############################################,,   '####,        
                  ,##################################################,,,,####,       
                ,###########''''           ''''###############################       
              ,#####''   ,,,,##########,,,,          '''####'''          '####       
            ,##' ,,,,###########################,,,                        '##       
           ' ,,###''''                  '''############,,,                           
         ,,##''                                '''############,,,,        ,,,,,,###''
      ,#''                                            '''#######################'''  
     '                                                          ''''####''''         
             ,#######,   #######,   ,#######,      ##                                
            ,#'     '#,  ##    ##  ,#'     '#,    #''#        ,####,    ,#,          
            ##       ##  ##   ,#'  ##            #'  '#       #'       ,# #          
            ##       ##  #######   ##           ,######,      #####,      #          
            '#,     ,#'  ##    ##  '#,     ,#' ,#      #,     #,   #      #          
             '#######'   ##     ##  '#######'  #'      '#     '####' #    #          



                #########################################################
                #                        -***-                          #
                #          Department of theory and spectroscopy        #
                #                                                       #
                #                      Frank Neese                      #
                #                                                       #
                #     Directorship, Architecture, Infrastructure        #
                #                    SHARK, DRIVERS                     #
                #        Core code/Algorithms in most modules           #
                #                                                       #
                #        Max Planck Institute fuer Kohlenforschung      #
                #                Kaiser Wilhelm Platz 1                 #
                #                 D-45470 Muelheim/Ruhr                 #
                #                      Germany                          #
                #                                                       #
                #                  All rights reserved                  #
                #                        -***-                          #
                #########################################################


                         Program Version 6.1.0  -  RELEASE   -
                                (GIT: $679e74b7b5$)
                          ($2025-06-10 18:02:51 +0200$)


 With contributions from (in alphabetic order):
[Max-Planck-Institut fuer Kohlenforschung]                               
  Daniel Aravena         : Magnetic Suceptibility                        
  Michael Atanasov       : Ab Initio Ligand Field Theory (pilot matlab implementation)
  Alexander A. Auer      : GIAO ZORA, VPT2 properties, NMR spectrum      
  Ute Becker             : All parallelization in ORCA, NUMFREQ, NUMCALC 
  Giovanni Bistoni       : ED, misc. LED, open-shell LED, HFLD           
  Dmytro Bykov           : pre 5.0 version of the SCF Hessian            
  Marcos Casanova-Páez   : Triplet and SCS-CIS(D). UHF-(DLPNO)-IP/EA/STEOM-CCSD. UHF-CVS-IP/STEOM-CCSD   
  Vijay G. Chilkuri      : MRCI spin determinant printing, contributions to CSF-ICE 
  Pauline Colinet        : FMM embedding                                 
  Dipayan Datta          : RHF DLPNO-CCSD density                        
  Achintya Kumar Dutta   : EOM-CC, STEOM-CC                              
  Nicolas Foglia         : Exact transition moments, OPA infrastructure, MCD improvements    
  Dmitry Ganyushin       : Spin-Orbit,Spin-Spin,Magnetic field MRCI      
  Miquel Garcia-Rates    : C-PCM and meta-GGA Hessian, CCSD/C-PCM, Gaussian charge scheme 
  Tiago L. C. Gouveia    : GS-ROHF, GS-ROCIS                             
  Yang Guo               : DLPNO-NEVPT2, F12-NEVPT2, CIM, IAO-localization        
  Andreas Hansen         : Spin unrestricted coupled pair/coupled cluster methods 
  Ingolf Harden          : AUTO-CI MPn and infrastructure                
  Benjamin Helmich-Paris : MC-RPA, TRAH-(SCF,CASSCF), AVAS, COSX integrals, SCF dyn. polar., MC-PDFT, srDFT 
  Lee Huntington         : MR-EOM, pCC                                   
  Robert Izsak           : Overlap fitted RIJCOSX, COSX-SCS-MP3, EOM     
  Riya Kayal             : Wick's Theorem for AUTO-CI, AUTO-CI UHF-CCSDT 
  Emily Kempfer          : AUTO-CI RHF CISDT and CCSDT, approximate NEVPT4
  Christian Kollmar      : KDIIS, OOCD, Brueckner-CCSD(T), CCSD density, CASPT2, CASPT2-K, improved NEVPT2 
  Axel Koslowski         : Symmetry handling                             
  Simone Kossmann        : meta-GGA functionals, TD-DFT gradient, OOMP2, (MP2 Hessian; deprecated post 5.0) 
  Lucas Lang             : DCDCAS, Hyperfine gauge corrections, ICE-SOC+SSC
  Marvin Lechner         : AUTO-CI (C++ implementation), FIC-MRCC        
  Spencer Leger          : CASSCF response                               
  Dagmar Lenk            : GEPOL surface, SMD, ORCA-2-JSON               
  Dimitrios Liakos       : Extrapolation schemes; Compound Job, Property file
  Dimitrios Manganas     : Further ROCIS development; embedding schemes. LFT, Crystal Embedding 
  Dimitrios Pantazis     : SARC Basis sets                               
  Anastasios Papadopoulos: AUTO-CI, single reference methods and gradients 
  Taras Petrenko         : pre 6.0 DFT Hessian and TD-DFT gradient,  ECA, NRVS 
  Petra Pikulova         : Analytic Raman intensities                    
  Peter Pinski           : DLPNO-MP2, DLPNO-MP2 Gradient                 
  Shashank Vittal Rao    : ES-AILFT, MagRelax                            
  Christoph Reimann      : Effective Core Potentials                     
  Marius Retegan         : Local ZFS, SOC                                
  Christoph Riplinger    : Optimizer, TS searches, QM/MM, DLPNO-CCSD(T), (RO)-DLPNO pert. Triples 
  Michael Roemelt        : Original ROCIS implementation, recursive CI coupling coefficients
  Masaaki Saitow         : Open-shell DLPNO-CCSD energy and density      
  Barbara Sandhoefer     : DKH picture change effects                    
  Yorick L. A. Schmerwitz: GMF and freeze-and-release deltaSCF, NEB S-IDPP initial path                    
  Kantharuban Sivalingam : CASSCF convergence/infrastructure, NEVPT2, NEVPT3, NEVPT4(SD), FIC-MRCI and CEPA variants
  Bernardo de Souza      : ESD, SOC TD-DFT                               
  Georgi L. Stoychev     : AutoAux, RI-MP2 NMR, DLPNO-MP2 response, X2C  
  Van Anh Tran           : RI-MP2 g-tensors                              
  Willem Van den Heuvel  : Paramagnetic NMR                              
  Zikuan Wang            : NOTCH, Electric field optimization            
  Frank Wennmohs         : Technical directorship and infrastructure     
  Hang Xu                : AUTO-CI-Response properties                   
                                                                         
[FACCTs GmbH]                                                            
  Markus Bursch, Nicolas Foglia, Miquel Garcia-Rates, Ingolf Harden, Hagen Neugebauer, Anastasios Papadopoulos, 
  Christoph Riplinger, Bernardo de Souza, Georgi L. Stoychev                                                    
                                                                 
  APM, various basis sets, CI-OPT, improved COSX, DLPNO-Multilevel,           
  DOCKER, DRACO, updates on ESD, Fragmentator, GOAT, IRC, LR-CPCM, L-BFGS, MBIS, meta-GGA TD-DFT gradient, ML-optimized integration grids, 
  MM, NACMEs, nearIR, NEB, NEB-TS, NL-DFT gradient (VV10), 2- and 3-layer-ONIOM, interface openCOSMO-RS, QMMM,   
  Crystal-QMMM, RESP, rigid body optimization, SF, symmetry and pop. for TD-DFT, various functionals, SOLVATOR                                   
                                                                         
[Other institutions]                                                     
  V. Asgeirsson          : NEB                                           
  Christoph Bannwarth    : sTDA-DFT, sTD-DFT, PBEh-3c, B97-3c, D3        
  Giovanni Bistoni       : ETS/NOCV, ADLD/ADEX, COVALED                  
  Martin Brehm           : Molecular dynamics                            
  Ronald Cardenas        : ETS/NOCV                                      
  Martina Colucci        : COVALED                                       
  Sebastian Ehlert       : rSCAN, r2SCAN, r2SCAN-3c, D4, dhf basis sets  
  Marvin Friede          : D4 for Fr, Ra, Ac-Lr                          
  Lars Goerigk           : TD-DFT with DH, B97 family of functionals     
  Stefan Grimme          : VdW corrections, initial TS optimization, DFT functionals, gCP, sTDA/sTD-DF 
  Waldemar Hujo          : DFT-NL                                        
  H. Jonsson             : NEB                                           
  Holger Kruse           : gCP                                           
  Marcel Mueller         : wB97X-3c, vDZP basis set                      
  Hagen Neugebauer       : wr2SCAN, Native XTB                           
  Gianluca Regni         : ADLD/ADEX                                     
  Tobias Risthaus        : pre 6.0 range-separated hybrid DFT and stability analysis
  Lukas Wittmann         : regularized MP2, r2SCAN double-hybrids, wr2SCAN        
                                                                         
We gratefully acknowledge several colleagues who have allowed us to      
interface, adapt or use parts of their codes:                            
  Ed Valeev, F. Pavosevic, A. Kumar             : LibInt (2-el integral package), F12 methods 
  Garnet Chan, S. Sharma, J. Yang, R. Olivares  : DMRG                   
  Ulf Ekstrom                                   : XCFun DFT Library      
  Mihaly Kallay                                 : mrcc  (arbitrary order and MRCC methods)
  Frank Weinhold                                : gennbo (NPA and NBO analysis)           
  Simon Mueller                                 : openCOSMO-RS                            
  Christopher J. Cramer and Donald G. Truhlar   : smd solvation model                     
  S Lehtola, MJT Oliveira, MAL Marques          : LibXC Library                           
  Liviu Ungur et al                             : ANISO software                          


 Your calculation uses the libint2 library for the computation of 2-el integrals
 For citations please refer to: http://libint.valeyev.net

 Your ORCA version has been built with support for libXC version: 7.0.0
 For citations please refer to: https://libxc.gitlab.io

 This ORCA versions uses:
   CBLAS   interface :  Fast vector & matrix operations
   LAPACKE interface :  Fast linear algebra routines
   SCALAPACK package :  Parallel linear algebra routines
   Shared memory     :  Shared parallel matrices


  ***********************************
  * Starting time: Wed Oct 15 13:35:06 2025
  * Host name:     SantiagoVargas-M21
  * Process ID:    87019
  * Working dir.:  /Users/santiagovargas/dev/orca_inputs/UO2
  ***********************************

Your calculation utilizes the DFT-NL dispersion correction.
Cite in your paper:
Vydrov, O. A.; Van Voorhis, T. J. Chem. Phys. 2010, 133, 244103
Hujo, W.; Grimme, S. J. Chem. Theory Comput. 2011, 7, 3866 
   

Warning: RI is on but no J-basis has been assigned. Assigning Def2/J (nothing to worry about!)
================================================================================

cite the ECPs for U  [Def-ECP] as follows:
 

ECP parameters for U  [Def-ECP] have been obtained from:
TURBOMOLE (7.0.2)

----- Orbital basis set information -----
Your calculation utilizes the basis: def2-SVP
   F. Weigend and R. Ahlrichs, Phys. Chem. Chem. Phys. 7, 3297 (2005).

The basis set includes element-specific modifications.

Your calculation utilizes the basis: ma-def-TZVP
   K. Eichkorn, F. Weigend, O. Treutler, R. Ahlrichs; Theor. Chem. Acc. 97, 119 (1997)
   Fr-Ra: I. S. Lim, P. Schwerdtfeger, B. Metz, H. Stoll, J. Chem. Phys. 122, 104103 (2005)
   Ac-Lr: X. Cao, M. Dolg, J. Molec. Struct. Theochem. 673 (2004)
   Augmentation: L. Wittmann, I. Gordiy, Igor, M. Friede, B. Helmich-Paris, S. Grimme, A. Hansen, M. Bursch, Phys. Chem. Chem. Phys. 26 (2024)

Your calculation utilizes the basis: def2-TZVPD
   F. Weigend and R. Ahlrichs, Phys. Chem. Chem. Phys. 7, 3297 (2005).
   D. Rappoport and F. Furche, J. Chem. Phys. 133, 134105 (2010)
   D. Rappoport, J. Chem. Phys. 155, 124102 (2021).

----- AuxJ basis set information -----
Your calculation utilizes the auxiliary basis: def2/J
   H-Rn: F. Weigend, Phys. Chem. Chem. Phys. 8, 1057 (2006).
   Fr-Lr: K. Eichkorn, F. Weigend, O. Treutler, R. Ahlrichs; Theor. Chem. Acc. 97, 119 (1997).

================================================================================
                                        WARNINGS
                       Please study these warnings very carefully!
================================================================================

WARNING: Old DensityContainer found on disk!
         Will remove this file - 
         If you want to keep old densities, please start your calculation with a different basename. 


WARNING: B97M-V or wB97M-V functional requested.
  ===> : libXC variant has now been activated.
         Any manually given DFX/HFX/RangeSep scaling parameters are IGNORED!


WARNING: Geometry Optimization
  ===> : Switching off AutoStart
         For restart on a previous wavefunction, please use MOREAD

WARNING: Analytic gradients for DFT-NL dispersion can only be done using the self-consistent method,
  ===>   Switching to SCNL

WARNING: Self-consistent DFT-NL dispersion not compatible with AutoTRAH.
  ===>   Switching AutoTRAH off


================================================================================
                                       INPUT FILE
================================================================================
NAME = UO2.inp
|  1> ! wB97M-V RIJCOSX NoUseSym DIIS NOSOSCF NormalConv DEFGRID2 OPT
|  2> 
|  3> %scf
|  4>   MaxIter 300
|  5>   Convergence Tight
|  6> end
|  7> 
|  8> %pal
|  9>   nprocs 4
| 10> end
| 11> 
| 12> %basis
| 13>   NewGTO U "ma-def-TZVP" end #/ other option "ma-def-TZVPP"
| 14>   NewECP U "def-ECP" end
| 15>   # Oxygen: diffuse-augmented triple-zeta with polarization
| 16>   NewGTO O "def2-TZVPD" end
| 17> end
| 18> 
| 19> # Geometry: linear O=U=O starting guess (Å). Adjust bond lengths as needed.
| 20> # CHARGE & MULTIPLICITY:
| 21> #  - Uranyl dication UO2^2+ (common molecular target): charge=+2, singlet => "2 1"
| 22> #  - Neutral UO2 (gas-phase dioxide): often open-shell; one option is triplet => "0 3"
| 23> # Set the line below to what you want to compute.
| 24> * xyz 2 1
| 25> U     0.000000    0.000000    0.000000
| 26> O      0.000000    0.000000    2.00
| 27> O     0.000000    0.000000   -2.00
| 28> **                         ****END OF INPUT****
================================================================================

                       *****************************
                       * Geometry Optimization Run *
                       *****************************

Geometry optimization settings:
Update method            Update   .... BFGS
Choice of coordinates    CoordSys .... (2022) Redundant Internals
Initial Hessian          InHess   .... Almloef's Model
Max. no of cycles        MaxIter  .... 50

Convergence Tolerances:
Energy Change            TolE     ....  5.0000e-06 Eh
Max. Gradient            TolMAXG  ....  3.0000e-04 Eh/bohr
RMS Gradient             TolRMSG  ....  1.0000e-04 Eh/bohr
Max. Displacement        TolMAXD  ....  4.0000e-03 bohr
RMS Displacement         TolRMSD  ....  2.0000e-03 bohr
Strict Convergence                .... False

------------------------------------------------------------------------------
                        ORCA OPTIMIZATION COORDINATE SETUP
------------------------------------------------------------------------------

The optimization will be done in redundant internal coordinates (2022)
Making redundant internal coordinates   ...  (2022 redundants) done
Evaluating the initial hessian          ...  (Almloef) done
Evaluating the coordinates              ...  done
Calculating the B-matrix                .... done
Calculating the G-matrix                .... done
The number of degrees of freedom        ....    4

    -----------------------------------------------------------------
                    Redundant Internal Coordinates


    -----------------------------------------------------------------
         Definition                    Initial Value    Approx d2E/dq
    -----------------------------------------------------------------
      1. B(O   1,U   0)                  2.0000         0.200057   
      2. B(O   2,U   0)                  2.0000         0.200057   
      3. L(O   1,U   0,O   2, 2)       180.0000         0.329138   
      4. L(O   1,U   0,O   2, 1)       180.0000         0.329138   
    -----------------------------------------------------------------

Number of atoms                         .... 3
Number of degrees of freedom            .... 4


         *************************************************************
         *                GEOMETRY OPTIMIZATION CYCLE   1            *
         *************************************************************
---------------------------------
CARTESIAN COORDINATES (ANGSTROEM)
---------------------------------
  U      0.000000    0.000000    0.000000
  O      0.000000    0.000000    2.000000
  O      0.000000    0.000000   -2.000000

----------------------------
CARTESIAN COORDINATES (A.U.)
----------------------------
  NO LB      ZA    FRAG     MASS         X           Y           Z
   0 U    32.0000*   0   238.029    0.000000    0.000000    0.000000
   1 O     8.0000    0    15.999    0.000000    0.000000    3.779452
   2 O     8.0000    0    15.999    0.000000    0.000000   -3.779452
* core charge reduced due to ECP

--------------------------------
INTERNAL COORDINATES (ANGSTROEM)
--------------------------------
 U      0   0   0     0.000000000000     0.00000000     0.00000000
 O      1   0   0     2.000000000000     0.00000000     0.00000000
 O      1   2   0     2.000000000000   180.00000000     0.00000000

---------------------------
INTERNAL COORDINATES (A.U.)
---------------------------
 U      0   0   0     0.000000000000     0.00000000     0.00000000
 O      1   0   0     3.779452267843     0.00000000     0.00000000
 O      1   2   0     3.779452267843   180.00000000     0.00000000

---------------------
BASIS SET INFORMATION
---------------------
There are 2 groups of distinct atoms

 Group   1 Type U   : 15s14p10d8f1g contracted to 11s10p5d4f1g pattern {31311111111/5111111111/61111/5111/1}
 Group   2 Type O   : 12s7p3d1f contracted to 6s4p3d1f pattern {621111/4111/111/1}

Atom   0U    basis set group =>   1
Atom   1O    basis set group =>   2
Atom   2O    basis set group =>   2
---------------------------------
AUXILIARY/J BASIS SET INFORMATION
---------------------------------
There are 2 groups of distinct atoms

 Group   1 Type U   : 18s7p7d6f6g3h5i contracted to 14s7p7d6f5g2h2i pattern {51111111111111/1111111/1111111/111111/21111/21/41}
 Group   2 Type O   : 12s5p4d2f1g contracted to 6s4p3d1f1g pattern {711111/2111/211/2/1}

Atom   0U    basis set group =>   1
Atom   1O    basis set group =>   2
Atom   2O    basis set group =>   2
-------------------------
ECP PARAMETER INFORMATION
-------------------------

 Group 1, Type U  ECP Def-ECP (replacing 60 core electrons, lmax=5)

Atom   0U    ECP group =>   1



           ************************************************************
           *        Program running with 4 parallel MPI-processes     *
           *              working on a common directory               *
           ************************************************************
------------------------------------------------------------------------------
                             ORCA STARTUP CALCULATIONS
                           -- RI-GTO INTEGRALS CHOSEN --
------------------------------------------------------------------------------
------------------------------------------------------------------------------
                   ___                                                        
                  /   \      - P O W E R E D   B Y -                         
                 /     \                                                     
                 |  |  |   _    _      __       _____    __    __             
                 |  |  |  | |  | |    /  \     |  _  \  |  |  /  |          
                  \  \/   | |  | |   /    \    | | | |  |  | /  /          
                 / \  \   | |__| |  /  /\  \   | |_| |  |  |/  /          
                |  |  |   |  __  | /  /__\  \  |    /   |      \           
                |  |  |   | |  | | |   __   |  |    \   |  |\   \          
                \     /   | |  | | |  |  |  |  | |\  \  |  | \   \       
                 \___/    |_|  |_| |__|  |__|  |_| \__\ |__|  \__/        
                                                                              
                      - O R C A' S   B I G   F R I E N D -                    
                                      &                                       
                       - I N T E G R A L  F E E D E R -                       
                                                                              
 v1 FN, 2020, v2 2021, v3 2022-2024                                           
------------------------------------------------------------------------------


----------------------
SHARK INTEGRAL PACKAGE
----------------------

Number of atoms                             ...      3
Number of basis functions                   ...    183
Number of shells                            ...     59
Maximum angular momentum                    ...      4
Integral batch strategy                     ... SHARK/LIBINT Hybrid
RI-J (if used) integral strategy            ... SPLIT-RIJ (Revised 2003 algorithm where possible)
Printlevel                                  ...      1
Contraction scheme used                     ... SEGMENTED contraction
Prescreening option                         ... SCHWARTZ
   Thresh                                   ... 2.500e-11
   Tcut                                     ... 2.500e-12
   Tpresel                                  ... 2.500e-12 
Coulomb Range Separation                    ... NOT USED
Exchange Range Separation                   ... Long Range
   Mu parameter                             ... 3.000e-01
   Scaling (regular/separated)              ... 1.500e-01 8.500e-01
Robust (split-)RI terms used:
  metric    (central integrals)             ... YES
  density   (r.h.s.  integrals)             ... YES
  potential (l.h.s.  integrals)             ... YES
Multipole approximations                    ... NOT USED
Finite Nucleus Model                        ... NOT USED
CABS basis                                  ... NOT available
Auxiliary Coulomb fitting basis             ... AVAILABLE
   # of basis functions in Aux-J            ...    303
   # of shells in Aux-J                     ...     73
   Maximum angular momentum in Aux-J        ...      6
Auxiliary J/K fitting basis                 ... NOT available
Auxiliary Correlation fitting basis         ... NOT available
Auxiliary 'external' fitting basis          ... NOT available

Checking pre-screening integrals            ... done (  0.0 sec) Dimension = 59
   => SHARK Basis and OBASIS are compatible. Storing Pre-screening
Shell pair information
Shell pair cut-off parameter TPreSel        ...   2.5e-12
Total number of shell pairs                 ...      1770
Shell pairs after pre-screening             ...      1686
Total number of primitive shell pairs       ...      4550
Primitive shell pairs kept                  ...      3687
          la=0 lb=0:    247 shell pairs
          la=1 lb=0:    390 shell pairs
          la=1 lb=1:    170 shell pairs
          la=2 lb=0:    237 shell pairs
          la=2 lb=1:    196 shell pairs
          la=2 lb=2:     65 shell pairs
          la=3 lb=0:    132 shell pairs
          la=3 lb=1:    106 shell pairs
          la=3 lb=2:     64 shell pairs
          la=3 lb=3:     20 shell pairs
          la=4 lb=0:     23 shell pairs
          la=4 lb=1:     18 shell pairs
          la=4 lb=2:     11 shell pairs
          la=4 lb=3:      6 shell pairs
          la=4 lb=4:      1 shell pairs

Checking whether 4 symmetric matrices of dimension 183 fit in memory
:Max Core in MB      =   4096.00
 MB in use           =     12.72
 MB left             =   4083.28
 MB needed           =      0.51
 Data fit in memory  = YES
Calculating RI/J V-Matrix + Cholesky decomp.... done (  0.0 sec)
Calculating Nuclear repulsion               ... done (  0.0 sec) ENN=    143.936200657600 Eh

Diagonalization of the overlap matrix:
Smallest eigenvalue                        ... 1.778e-04
Time for diagonalization                   ...    0.002 sec
Threshold for overlap eigenvalues          ... 1.000e-07
Number of eigenvalues below threshold      ... 0
Time for construction of square roots      ...    0.001 sec
Total time needed                          ...    0.003 sec

-------------------
DFT GRID GENERATION
-------------------

General Integration Accuracy     IntAcc      ... 4.388
Radial Grid Type                 RadialGrid  ... OptM3 with GC (2021)
Angular Grid (max. ang.)         AngularGrid ... 4 (Lebedev-302)
Angular grid pruning method      GridPruning ... 4 (adaptive)
Weight generation scheme         WeightScheme... mBecke (2022)
Basis function cutoff            BFCut       ... 1.0000e-11
Integration weight cutoff        WCut        ... 1.0000e-14
Partially contracted basis set               ... off
Rotationally invariant grid construction     ... off
Angular grids for H and He will be reduced by one unit
Diffuse basis detected: some atoms will have their outermost
                        angular grid increased by 1.
Core-polarized basis detected: some atoms will have their core
                               angular grid increased.

Total number of grid points                  ...    30150
Total number of batches                      ...      473
Average number of points per batch           ...       63
Average number of grid points per atom       ...    10050

------------------
NL GRID GENERATION
------------------

General Integration Accuracy     IntAcc      ... 4.004
Radial Grid Type                 RadialGrid  ... OptM3 with GC (2021)
Angular Grid (max. ang.)         AngularGrid ... 2 (Lebedev-110)
Angular grid pruning method      GridPruning ... 4 (adaptive)
Weight generation scheme         WeightScheme... mBecke (2022)
Basis function cutoff            BFCut       ... 1.0000e-10
Integration weight cutoff        WCut        ... 1.0000e-14
Partially contracted basis set               ... off
Rotationally invariant grid construction     ... off
Angular grids for H and He will be reduced by one unit
Diffuse basis detected: some atoms will have their outermost
                        angular grid increased by 1.
Core-polarized basis detected: some atoms will have their core
                               angular grid increased.

Total number of grid points                  ...    13614
Total number of batches                      ...      215
Average number of points per batch           ...       63
Average number of grid points per atom       ...     4538

--------------------
COSX GRID GENERATION
--------------------

GRIDX 1
-------
General Integration Accuracy     IntAcc      ... 3.816
Radial Grid Type                 RadialGrid  ... OptM3 with GC (2021)
Angular Grid (max. ang.)         AngularGrid ... 1 (Lebedev-50)
Angular grid pruning method      GridPruning ... 4 (adaptive)
Weight generation scheme         WeightScheme... mBecke (2022)
Basis function cutoff            BFCut       ... 1.0000e-11
Integration weight cutoff        WCut        ... 1.0000e-14
Partially contracted basis set               ... on
Rotationally invariant grid construction     ... off
Angular grids for H and He will be reduced by one unit
Diffuse basis detected: some atoms will have their outermost
                        angular grid increased by 1.
Core-polarized basis detected: some atoms will have their core
                               angular grid increased.

Total number of grid points                  ...    12686
Total number of batches                      ...      100
Average number of points per batch           ...      126
Average number of grid points per atom       ...     4229
UseSFitting                                  ... on

GRIDX 2
-------
General Integration Accuracy     IntAcc      ... 4.020
Radial Grid Type                 RadialGrid  ... OptM3 with GC (2021)
Angular Grid (max. ang.)         AngularGrid ... 2 (Lebedev-110)
Angular grid pruning method      GridPruning ... 4 (adaptive)
Weight generation scheme         WeightScheme... mBecke (2022)
Basis function cutoff            BFCut       ... 1.0000e-11
Integration weight cutoff        WCut        ... 1.0000e-14
Partially contracted basis set               ... on
Rotationally invariant grid construction     ... off
Angular grids for H and He will be reduced by one unit
Diffuse basis detected: some atoms will have their outermost
                        angular grid increased by 1.
Core-polarized basis detected: some atoms will have their core
                               angular grid increased.

Total number of grid points                  ...    15636
Total number of batches                      ...      123
Average number of points per batch           ...      127
Average number of grid points per atom       ...     5212
UseSFitting                                  ... on

GRIDX 3
-------
General Integration Accuracy     IntAcc      ... 4.338
Radial Grid Type                 RadialGrid  ... OptM3 with GC (2021)
Angular Grid (max. ang.)         AngularGrid ... 3 (Lebedev-194)
Angular grid pruning method      GridPruning ... 4 (adaptive)
Weight generation scheme         WeightScheme... mBecke (2022)
Basis function cutoff            BFCut       ... 1.0000e-11
Integration weight cutoff        WCut        ... 1.0000e-14
Partially contracted basis set               ... on
Rotationally invariant grid construction     ... off
Angular grids for H and He will be reduced by one unit
Diffuse basis detected: some atoms will have their outermost
                        angular grid increased by 1.
Core-polarized basis detected: some atoms will have their core
                               angular grid increased.

Total number of grid points                  ...    20930
Total number of batches                      ...      165
Average number of points per batch           ...      126
Average number of grid points per atom       ...     6977
UseSFitting                                  ... on
Grids setup in   0.3 sec
Initializing property integral containers    ... done (  0.0 sec)

SHARK setup successfully completed in   0.6 seconds

Maximum memory used throughout the entire STARTUP-calculation: 39.9 MB


           ************************************************************
           *        Program running with 4 parallel MPI-processes     *
           *              working on a common directory               *
           ************************************************************
-------------------------------------------------------------------------------
                                 ORCA GUESS
                   Start orbitals & Density for SCF / CASSCF
-------------------------------------------------------------------------------

------------
SCF SETTINGS
------------
Hamiltonian:
 Density Functional     Method          .... DFT(GTOs)
  Functional kind                       .... Exchange-Correlation
  Functional name                       .... wB97M-V exchange-correlation functional
  Functional family                     .... Hybrid MGGA
  Functional refs                              
    [ 0] N. Mardirossian and M. Head-Gordon.,  J. Chem. Phys. 144, 214110 (2016), doi: 10.1063/1.4952647
  Fraction of HF Exchange (short range) .... 0.1500
  Fraction of HF Exchange ( int64 range )  .... 1.0000
  Range separation parameter mu         .... 0.3000
  Functional external parameters        .... 17
    Parameter  0 _cx00      =  8.500000e-01 : u^00 coefficient for exchange
    Parameter  1 _cx01      =  1.007000e+00 : u^01 coefficient for exchange
    Parameter  2 _cx10      =  2.590000e-01 : u^10 coefficient for exchange
    Parameter  3 _css00     =  4.430000e-01 : u^00 coefficient for same-spin correlation
    Parameter  4 _css04     = -1.437000e+00 : u^04 coefficient for same-spin correlation
    Parameter  5 _css10     = -4.535000e+00 : u^10 coefficient for same-spin correlation
    Parameter  6 _css20     = -3.390000e+00 : u^20 coefficient for same-spin correlation
    Parameter  7 _css43     =  4.278000e+00 : u^43 coefficient for same-spin correlation
    Parameter  8 _cos00     =  1.000000e+00 : u^00 coefficient for opposite-spin correlation
    Parameter  9 _cos10     =  1.358000e+00 : u^10 coefficient for opposite-spin correlation
    Parameter 10 _cos20     =  2.924000e+00 : u^20 coefficient for opposite-spin correlation
    Parameter 11 _cos21     = -8.812000e+00 : u^21 coefficient for opposite-spin correlation
    Parameter 12 _cos60     = -1.390000e+00 : u^60 coefficient for opposite-spin correlation
    Parameter 13 _cos61     =  9.142000e+00 : u^61 coefficient for opposite-spin correlation
    Parameter 14 _alpha     =  1.000000e+00 : fraction of HF exchange
    Parameter 15 _beta      = -8.500000e-01 : fraction of short-range exchange
    Parameter 16 _omega     =  3.000000e-01 : range-separation constant
 Long-range corrected/Screened/Range-Separated Hybrid DFT is turned on
   Amount of maximum screened exact exchange              ....  0.850000
   Range separation parameter mu (erf(mu*r12)/r12)        ....  0.300000
   NL short-range parameter             ....  6.000000
   NL long-range parameter              ....  0.010000
 RI-approximation to the Coulomb term is turned on
   Number of AuxJ basis functions       .... 303
   RIJ-COSX (HFX calculated with COS-X)).... on


General Settings:
 Integral files         IntName         .... UO2
 Hartree-Fock type      HFTyp           .... RHF
 Total Charge           Charge          ....    2
 Multiplicity           Mult            ....    1
 Number of Electrons    NEL             ....   46
 Basis Dimension        Dim             ....  183
 Nuclear Repulsion      ENuc            ....    143.9362006576 Eh

Convergence Acceleration:
 AO-DIIS                CNVDIIS         .... on
   Start iteration      DIISMaxIt       ....    12
   Startup error        DIISStart       ....  0.200000
   # of expansion vecs  DIISMaxEq       ....     5
   Bias factor          DIISBfac        ....   1.050
   Max. coefficient     DIISMaxC        ....  10.000
 MO-DIIS                CNVKDIIS        .... off
 Trust-Rad. Augm. Hess. CNVTRAH         .... off
 SOSCF                 CNVSOSCF           .... off
 Level Shifting         CNVShift        .... on
   Level shift para.    LevelShift      ....    0.2500
   Turn off err/grad.   ShiftErr        ....    0.0010
 Zerner damping         CNVZerner       .... off
 Static damping         CNVDamp         .... on
   Fraction old density DampFac         ....    0.7000
   Max. Damping (<1)    DampMax         ....    0.9800
   Min. Damping (>=0)   DampMin         ....    0.0000
   Turn off err/grad.   DampErr         ....    0.1000

SCF Procedure:
 Maximum # iterations   MaxIter         ....   300
 SCF integral mode      SCFMode         .... Direct
   Integral package                     .... SHARK and LIBINT hybrid scheme
 Reset frequency        DirectResetFreq ....    20
 Integral Threshold     Thresh          ....  2.500e-11 Eh
 Primitive CutOff       TCut            ....  2.500e-12 Eh

Convergence Tolerance:
 Convergence Check Mode ConvCheckMode   .... Total+1el-Energy
 Convergence forced     ConvForced      .... 0
 Energy Change          TolE            ....  1.000e-08 Eh
 1-El. energy change                    ....  1.000e-05 Eh
 DIIS Error             TolErr          ....  5.000e-07

------------------------------
INITIAL GUESS: MODEL POTENTIAL
------------------------------
Loading Hartree-Fock densities                     ... done
Atomic calculation to generate a density for atom 0 (U  with ECP)
  Multiplicity assumed   :    5
  Atomic configuration   : 1s2 2s2 2p6 3s2 3p6 4s2 3d10 4p6 5s2 4d10 5p6 6s2 4f14 5d10 6p6 7s2 5f4 
  Number of open shells  : 2
  Command: /Users/santiagovargas/Documents/orca_6_1_0_macosx_arm64_openmpi411/orca UO2_atom92.inp "" > UO2_atom92.out
Returned from the atomic calculation with res=0
Calculating cut-offs                               ... done
Initializing the effective Hamiltonian             ... done
Setting up the integral package (SHARK)            ... done
Starting the Coulomb interaction                   ... done (   0.0 sec)
Making the grid                                    ... done (   0.0 sec)
Mapping shells                                     ... done
Starting the XC term evaluation                    ... done (   0.0 sec)
  promolecular density results
     # of electrons  =    107.999375411
     EX              =   -445.642202578
     EC              =     -6.283913830
     EX+EC           =   -451.926116408
Transforming the Hamiltonian                       ... done (   0.0 sec)
Diagonalizing the Hamiltonian                      ... done (   0.0 sec)
Back transforming the eigenvectors                 ... done (   0.0 sec)
Now organizing SCF variables                       ... done
                      ------------------
                      INITIAL GUESS DONE (  27.6 sec)
                      ------------------
             **** ENERGY FILE WAS UPDATED (UO2.en.tmp) ****
Finished Guess after  27.7 sec
Maximum memory used throughout the entire GUESS-calculation: 20.9 MB


           ************************************************************
           *        Program running with 4 parallel MPI-processes     *
           *              working on a common directory               *
           ************************************************************

-------------------------------------------------------------------------------------------
                                      ORCA LEAN-SCF
                              memory conserving SCF solver
-------------------------------------------------------------------------------------------

----------------------------------------D-I-I-S--------------------------------------------
Iteration    Energy (Eh)           Delta-E    RMSDP     MaxDP     DIISErr   Damp  Time(sec)
-------------------------------------------------------------------------------------------
               ***  Starting incremental Fock matrix formation  ***
    1    -624.8335788131752224     0.00e+00  1.80e-02  3.51e-01  1.62e+00  0.700   1.0
Warning: op=0 Small HOMO/LUMO gap (  -1.508) - skipping pre-diagonalization
         LevelShift set to 1.000 Eh
         Will do a full diagonalization
    2    -623.6849601029438190     1.15e+00  1.71e-02  5.62e-01  1.19e+00  0.700   0.9
    3    -624.9376329960776957    -1.25e+00  6.96e-03  2.32e-01  7.99e-01  0.700   0.9
    4    -625.2808929439840995    -3.43e-01  3.50e-03  7.71e-02  5.46e-01  0.700   0.8
    5    -625.4834274184607921    -2.03e-01  5.65e-03  1.57e-01  3.81e-01  0.700   0.8
    6    -625.7359019880485675    -2.52e-01  5.38e-03  1.42e-01  2.71e-01  0.700   0.9
                               ***Turning on AO-DIIS***
    7    -625.9548874517356580    -2.19e-01  3.31e-03  7.40e-02  1.95e-01  0.700   0.9
    8    -626.0981473619492590    -1.43e-01  1.93e-03  2.59e-02  1.38e-01  0.700   0.9
    9    -626.1968758297139175    -9.87e-02  1.22e-03  2.00e-02  9.73e-02  0.700   0.9
   10    -626.2672852802487569    -7.04e-02  2.82e-03  4.02e-02  6.80e-02  0.000   0.8
   11    -626.4380885056622219    -1.71e-01  5.10e-04  1.00e-02  2.08e-02  0.000   0.9
   12    -626.4389555281342155    -8.67e-04  3.10e-04  4.81e-03  1.15e-02  0.000   0.8
   13    -626.4393916494288987    -4.36e-04  2.46e-04  4.18e-03  8.84e-03  0.000   0.8
   14    -626.4397149791159336    -3.23e-04  2.39e-04  3.73e-03  8.76e-03  0.000   0.8
   15    -626.4400270125046291    -3.12e-04  2.14e-04  3.71e-03  7.05e-03  0.000   0.8
   16    -626.4402751759494095    -2.48e-04  1.90e-04  3.17e-03  5.38e-03  0.000   0.8
   17    -626.4404582125293928    -1.83e-04  1.83e-04  3.29e-03  4.57e-03  0.000   0.8
   18    -626.4405966532024195    -1.38e-04  1.34e-04  2.11e-03  2.87e-03  0.000   0.8
   19    -626.4406757752340127    -7.91e-05  1.32e-04  2.34e-03  2.68e-03  0.000   0.8
   20    -626.4407332564406943    -5.75e-05  8.89e-05  1.50e-03  1.50e-03  0.000   0.8
               *** Restarting incremental Fock matrix formation ***
                             ****Resetting DIIS****
   21    -626.4407761028628556    -4.28e-05  1.30e-04  1.54e-03  1.07e-03  0.000   0.9
   22    -626.4407905653106354    -1.45e-05  4.99e-05  9.17e-04  2.06e-03  0.000   0.8
   23    -626.4407952884272390    -4.72e-06  5.49e-05  7.52e-04  1.18e-03  0.000   0.8
   24    -626.4408047038697305    -9.42e-06  5.48e-05  9.27e-04  5.40e-04  0.000   0.8
               *** Restarting incremental Fock matrix formation ***
                             ****Resetting DIIS****
   25    -626.4407880540729820     1.66e-05  8.90e-05  1.59e-03  1.47e-04  0.000   1.0
   26    -626.4407883526088199    -2.99e-07  8.20e-06  1.07e-04  3.49e-04  0.000   0.9
   27    -626.4407884686679608    -1.16e-07  8.52e-06  1.42e-04  1.88e-04  0.000   0.9
   28    -626.4407886215825556    -1.53e-07  1.11e-05  1.73e-04  9.12e-05  0.000   0.9
   29    -626.4407887283082346    -1.07e-07  4.94e-06  7.41e-05  2.31e-05  0.000   0.9
   30    -626.4407887420774159    -1.38e-08  6.39e-07  9.10e-06  8.32e-06  0.000   0.9
   31    -626.4407887430644450    -9.87e-10  2.50e-07  3.65e-06  8.88e-06  0.000   0.9
                 **** Energy Check signals convergence ****

               *****************************************************
               *                     SUCCESS                       *
               *           SCF CONVERGED AFTER  31 CYCLES          *
               *****************************************************

Recomputing exchange energy using gridx3       ... done (    0.802 sec)
Old exchange energy                            :    -12.602851994 Eh
New exchange energy                            :    -12.602850434 Eh
Exchange energy change after final integration :      0.000001560 Eh
Total energy after final integration           :   -626.440787185 Eh
             **** ENERGY FILE WAS UPDATED (UO2.en.tmp) ****

----------------
TOTAL SCF ENERGY
----------------

Total Energy       :       -626.44078718459775 Eh          -17046.32044 eV

Components:
Nuclear Repulsion  :        143.93620065760001 Eh            3916.70314 eV
Electronic Energy  :       -770.55609027924868 Eh          -20967.89720 eV
One Electron Energy:      -1288.20759530792088 Eh          -35053.91077 eV
Two Electron Energy:        517.65150502867220 Eh           14086.01357 eV

Virial components:
Potential Energy   :       -924.41616445056525 Eh          -25154.64267 eV
Kinetic Energy     :        297.97537726596755 Eh            8108.32223 eV
Virial Ratio       :          3.10232400050105

DFT components:
N(Alpha)           :       22.999983269394 electrons
N(Beta)            :       22.999983269394 electrons
N(Total)           :       45.999966538789 electrons
NL Energy, E(C,NL) :        0.179100877488 Eh       
E(XC)              :      -32.292773717201 Eh       

---------------
SCF CONVERGENCE
---------------

  Last Energy change         ...    9.8703e-10  Tolerance :   1.0000e-08
  Last MAX-Density change    ...    3.6497e-06  Tolerance :   1.0000e-07
  Last RMS-Density change    ...    2.4964e-07  Tolerance :   5.0000e-09
  Last DIIS Error            ...    8.8823e-06  Tolerance :   5.0000e-07


----------------
ORBITAL ENERGIES
----------------

  NO   OCC          E(Eh)            E(eV) 
   0   2.0000     -19.867344      -540.6179 
   1   2.0000     -19.867341      -540.6178 
   2   2.0000     -12.840014      -349.3946 
   3   2.0000      -8.276008      -225.2016 
   4   2.0000      -8.276008      -225.2016 
   5   2.0000      -8.212597      -223.4761 
   6   2.0000      -4.642189      -126.3204 
   7   2.0000      -4.642188      -126.3204 
   8   2.0000      -4.603087      -125.2564 
   9   2.0000      -4.603087      -125.2564 
  10   2.0000      -4.587824      -124.8410 
  11   2.0000      -2.597854       -70.6912 
  12   2.0000      -1.702026       -46.3145 
  13   2.0000      -1.634507       -44.4772 
  14   2.0000      -1.634507       -44.4772 
  15   2.0000      -1.522186       -41.4208 
  16   2.0000      -1.387203       -37.7477 
  17   2.0000      -0.930402       -25.3175 
  18   2.0000      -0.928458       -25.2646 
  19   2.0000      -0.924653       -25.1611 
  20   2.0000      -0.924653       -25.1611 
  21   2.0000      -0.915959       -24.9245 
  22   2.0000      -0.915959       -24.9245 
  23   0.0000      -0.606316       -16.4987 
  24   0.0000      -0.606316       -16.4987 
  25   0.0000      -0.578589       -15.7442 
  26   0.0000      -0.578574       -15.7438 
  27   0.0000      -0.536974       -14.6118 
  28   0.0000      -0.536974       -14.6118 
  29   0.0000      -0.483927       -13.1683 
  30   0.0000      -0.480707       -13.0807 
  31   0.0000      -0.480706       -13.0807 
  32   0.0000      -0.466781       -12.7018 
  33   0.0000      -0.366874        -9.9831 
*Only the first 10 virtual orbitals were printed.

                    ********************************
                    * MULLIKEN POPULATION ANALYSIS *
                    ********************************

-----------------------
MULLIKEN ATOMIC CHARGES
-----------------------
   0 U :    2.376418
   1 O :   -0.188209
   2 O :   -0.188209
Sum of atomic charges:    2.0000000

--------------------------------
MULLIKEN REDUCED ORBITAL CHARGES
--------------------------------
  0 U s       :     4.041324  s :     4.041324
      pz      :     3.855253  p :    11.870047
      px      :     4.007397
      py      :     4.007397
      dz2     :     2.483389  d :    11.262334
      dxz     :     2.389479
      dyz     :     2.389479
      dx2y2   :     1.999994
      dxy     :     1.999994
      f0      :     1.076891  f :     2.405155
      f+1     :     0.664132
      f-1     :     0.664132
      f+2     :     0.000000
      f-2     :     0.000000
      f+3     :     0.000000
      f-3     :     0.000000
      g0      :     0.014483  g :     0.044722
      g+1     :     0.015118
      g-1     :     0.015118
      g+2     :     0.000002
      g-2     :     0.000002
      g+3     :     0.000000
      g-3     :     0.000000
      g+4     :     0.000000
      g-4     :     0.000000

  1 O s       :     4.007381  s :     4.007381
      pz      :     1.253738  p :     4.143165
      px      :     1.444713
      py      :     1.444713
      dz2     :     0.002896  d :     0.036962
      dxz     :     0.017031
      dyz     :     0.017031
      dx2y2   :     0.000002
      dxy     :     0.000002
      f0      :     0.000314  f :     0.000701
      f+1     :     0.000193
      f-1     :     0.000193
      f+2     :     0.000000
      f-2     :     0.000000
      f+3     :     0.000000
      f-3     :     0.000000

  2 O s       :     4.007383  s :     4.007383
      pz      :     1.253738  p :     4.143163
      px      :     1.444713
      py      :     1.444713
      dz2     :     0.002896  d :     0.036962
      dxz     :     0.017031
      dyz     :     0.017031
      dx2y2   :     0.000002
      dxy     :     0.000002
      f0      :     0.000314  f :     0.000701
      f+1     :     0.000193
      f-1     :     0.000193
      f+2     :     0.000000
      f-2     :     0.000000
      f+3     :     0.000000
      f-3     :     0.000000



                     *******************************
                     * LOEWDIN POPULATION ANALYSIS *
                     *******************************

----------------------
LOEWDIN ATOMIC CHARGES
----------------------
   0 U :    2.461452
   1 O :   -0.230727
   2 O :   -0.230725

-------------------------------
LOEWDIN REDUCED ORBITAL CHARGES
-------------------------------
  0 U s       :     3.673557  s :     3.673557
      pz      :     3.798630  p :    11.631926
      px      :     3.916648
      py      :     3.916648
      dz2     :     2.584317  d :    11.407319
      dxz     :     2.411548
      dyz     :     2.411548
      dx2y2   :     1.999953
      dxy     :     1.999953
      f0      :     1.258807  f :     2.712043
      f+1     :     0.726618
      f-1     :     0.726618
      f+2     :     0.000000
      f-2     :     0.000000
      f+3     :     0.000000
      f-3     :     0.000000
      g0      :     0.048871  g :     0.113703
      g+1     :     0.032415
      g-1     :     0.032415
      g+2     :     0.000001
      g-2     :     0.000001
      g+3     :     0.000000
      g-3     :     0.000000
      g+4     :     0.000000
      g-4     :     0.000000

  1 O s       :     3.724817  s :     3.724817
      pz      :     1.448438  p :     4.245385
      px      :     1.398473
      py      :     1.398473
      dz2     :     0.143223  d :     0.258216
      dxz     :     0.057474
      dyz     :     0.057474
      dx2y2   :     0.000023
      dxy     :     0.000023
      f0      :     0.001431  f :     0.002309
      f+1     :     0.000439
      f-1     :     0.000439
      f+2     :     0.000000
      f-2     :     0.000000
      f+3     :     0.000000
      f-3     :     0.000000

  2 O s       :     3.724817  s :     3.724817
      pz      :     1.448438  p :     4.245383
      px      :     1.398473
      py      :     1.398473
      dz2     :     0.143223  d :     0.258216
      dxz     :     0.057474
      dyz     :     0.057474
      dx2y2   :     0.000023
      dxy     :     0.000023
      f0      :     0.001431  f :     0.002309
      f+1     :     0.000439
      f-1     :     0.000439
      f+2     :     0.000000
      f-2     :     0.000000
      f+3     :     0.000000
      f-3     :     0.000000



                      *****************************
                      * MAYER POPULATION ANALYSIS *
                      *****************************

  NA   - Mulliken gross atomic population
  ZA   - Total nuclear charge
  QA   - Mulliken gross atomic charge
  VA   - Mayer's total valence
  BVA  - Mayer's bonded valence
  FA   - Mayer's free valence

  ATOM       NA         ZA         QA         VA         BVA        FA
  0 U     29.6236    32.0000     2.3764     4.7240     4.7240     0.0000
  1 O      8.1882     8.0000    -0.1882     2.4702     2.4702     0.0000
  2 O      8.1882     8.0000    -0.1882     2.4702     2.4702     0.0000

  Mayer bond orders larger than 0.100000
B(  0-U ,  1-O ) :   2.3620 B(  0-U ,  2-O ) :   2.3620 B(  1-O ,  2-O ) :   0.1082 


-------
TIMINGS
-------

Total SCF time: 0 days 0 hours 0 min 28 sec 

Total time                  ....      28.559 sec
Sum of individual times     ....      27.699 sec  ( 97.0%)

SCF preparation             ....       0.129 sec  (  0.5%)
Fock matrix formation       ....      27.071 sec  ( 94.8%)
  Startup                   ....       0.010 sec  (  0.0% of F)
  Split-RI-J                ....       0.798 sec  (  2.9% of F)
  Chain of spheres X        ....      16.385 sec  ( 60.5% of F)
  XC integration            ....      10.541 sec  ( 38.9% of F)
    XC Preparation          ....       0.436 sec  (  4.1% of XC)
    XC Prescreening         ....       0.619 sec  (  5.9% of XC)
    Basis function eval.    ....       5.972 sec  ( 56.6% of XC)
    Density eval.           ....       0.487 sec  (  4.6% of XC)
    XC-Functional eval.     ....       0.127 sec  (  1.2% of XC)
    XC-Potential eval.      ....       2.066 sec  ( 19.6% of XC)
Diagonalization             ....       0.000 sec  (  0.0%)
Density matrix formation    ....       0.070 sec  (  0.2%)
Total Energy calculation    ....       0.045 sec  (  0.2%)
Population analysis         ....       0.009 sec  (  0.0%)
Orbital Transformation      ....       0.017 sec  (  0.1%)
Orbital Orthonormalization  ....       0.000 sec  (  0.0%)
DIIS solution               ....       0.359 sec  (  1.3%)
Finished LeanSCF after  28.6 sec

Maximum memory used throughout the entire LEANSCF-calculation: 21.1 MB

-------------------------   --------------------
FINAL SINGLE POINT ENERGY      -626.440787184598
-------------------------   --------------------



           ************************************************************
           *        Program running with 4 parallel MPI-processes     *
           *              working on a common directory               *
           ************************************************************
------------------------------------------------------------------------------
                         ORCA SCF GRADIENT CALCULATION
------------------------------------------------------------------------------

Nuc. rep. gradient        (SHARK) ... done (  0.0 sec)
HCore & Overlap gradient  (SHARK) ... done (  0.0 sec)
ECP gradient              (SHARK) ... done (  0.3 sec)
Split-RIJ-J gradient      (SHARK) ... done (  0.6 sec)
done (  2.6 sec)
XC gradient                       ... done (  0.2 sec)
NL correlation gradient           ... done (  0.2 sec)

------------------
CARTESIAN GRADIENT
------------------

   1   U   :    0.000000019   -0.000000017   -0.000000074
   2   O   :    0.000000024   -0.000000046    0.207247102
   3   O   :   -0.000000042    0.000000063   -0.207247027

Difference to translation invariance:
           :   -0.0000000000   -0.0000000000    0.0000000000

Difference to rotation invariance:
           :    0.0000004102    0.0000002498    0.0000000000

Norm of the Cartesian gradient     ...    0.2930916092
RMS gradient                       ...    0.0976972031
MAX gradient                       ...    0.2072471016

-------
TIMINGS
-------

Total SCF gradient time     ....        3.844 sec

Densities                   ....       0.000 sec  (  0.0%)
One electron gradient       ....       0.006 sec  (  0.2%)
RI-J Coulomb gradient       ....       0.562 sec  ( 14.6%)
COSX gradient               ....       2.585 sec  ( 67.3%)
XC gradient                 ....       0.211 sec  (  5.5%)
NL correlation gradient     ....       0.214 sec  (  5.6%)

Maximum memory used throughout the entire SCFGRAD-calculation: 70.8 MB
------------------------------------------------------------------------------
                         ORCA GEOMETRY RELAXATION STEP
------------------------------------------------------------------------------

Reading the OPT-File                    .... done
Getting information on internals        .... done
Copying old internal coords+grads       .... done
Making the new internal coordinates     .... (2022 redundants) done
Validating the new internal coordinates .... (2022 redundants) done
Calculating the B-matrix                .... done
Calculating the G,G- and P matrices     .... done
Transforming gradient to internals      .... done
Projecting the internal gradient        .... done
Number of atoms                         ....   3
Number of internal coordinates          ....   4
Current Energy                          ....  -626.440787185 Eh
Current gradient norm                   ....     0.293091609 Eh/bohr
Maximum allowed component of the step   ....  0.300
Current trust radius                    ....  0.300
Evaluating the initial hessian          ....  (Almloef) done
Projecting the Hessian                  .... done
Forming the augmented Hessian           .... done
Diagonalizing the augmented Hessian     .... done
Last element of RFO vector              ....  0.813324800
Lowest eigenvalues of augmented Hessian:
 -0.209662367  0.200056806  0.329137774  0.329137774
Length of the computed step             ....  0.715347558
Warning: the length of the step is outside the trust region - taking restricted step instead
The input lambda is                     ....     0.199057
   iter:   5  x=    0.192463  g=1324195.656016 f(x)=  3351.753064
   iter:  10  x=    0.142445  g= 3027.693016 f(x)=    58.083271
   iter:  15  x=   -0.215493  g=    7.411670 f(x)=     0.966638
   iter:  20  x=   -0.776872  g=    0.187263 f(x)=     0.000981
The output lambda is                    ....    -0.776915 (23 iterations)
The final length of the internal step   ....  0.300000000
Converting the step to Cartesian space:
 Initial RMS(Int)=    0.1500000000
Transforming coordinates:
 Iter   0:  RMS(Cart)=    0.1000000000 RMS(Int)=    0.1500000000
done
Storing new coordinates                 .... done

                                .--------------------.
          ----------------------|Geometry convergence|-------------------------
          Item                value                   Tolerance       Converged
          ---------------------------------------------------------------------
          RMS gradient        0.1465458046            0.0001000000      NO
          MAX gradient        0.2072471016            0.0003000000      NO
          RMS step            0.1500000000            0.0020000000      NO
          MAX step            0.2121320724            0.0040000000      NO
          -------------------------------------------------------------------------
          ........................................................
          Max(Bonds)      0.1123      Max(Angles)    0.00
          Max(Dihed)        0.00      Max(Improp)    0.00
          ---------------------------------------------------------------------

The optimization has not yet converged - more geometry cycles are needed


    ---------------------------------------------------------------------------
                         Redundant Internal Coordinates
                            (Angstroem and degrees)

        Definition                    Value    dE/dq     Step     New-Value
    ----------------------------------------------------------------------------
     1. B(O   1,U   0)                2.0000  0.207247 -0.1123    1.8877   
     2. B(O   2,U   0)                2.0000  0.207247 -0.1123    1.8877   
     3. L(O   1,U   0,O   2, 2)       180.00 -0.000000    0.00    180.00   
     4. L(O   1,U   0,O   2, 1)       180.00 -0.000000    0.00    180.00   
    ----------------------------------------------------------------------------

Geometry step timings:
Preparation and reading OPT file:      0.000 s ( 3.594 %)
Internal coordinates            :      0.000 s ( 5.625 %)
B/P matrices and projection     :      0.000 s (10.781 %)
Hessian update/contruction      :      0.000 s (42.031 %)
Making the step                 :      0.000 s ( 9.219 %)
Converting the step to Cartesian:      0.000 s ( 2.813 %)
Storing new data                :      0.000 s ( 7.500 %)
Checking convergence            :      0.000 s ( 5.156 %)
Final printing                  :      0.000 s (13.281 %)
Total time                      :      0.001 s

Time for energy+gradient        :     61.224 s
Time for complete geometry iter :     61.407 s

         *************************************************************
         *                GEOMETRY OPTIMIZATION CYCLE   2            *
         *************************************************************
---------------------------------
CARTESIAN COORDINATES (ANGSTROEM)
---------------------------------
  U      0.000000   -0.000000    0.000000
  O     -0.000000    0.000000    1.887745
  O     -0.000000    0.000000   -1.887745

----------------------------
CARTESIAN COORDINATES (A.U.)
----------------------------
  NO LB      ZA    FRAG     MASS         X           Y           Z
   0 U    32.0000*   0   238.029    0.000000   -0.000000    0.000000
   1 O     8.0000    0    15.999   -0.000000    0.000000    3.567320
   2 O     8.0000    0    15.999   -0.000000    0.000000   -3.567320
* core charge reduced due to ECP

--------------------------------
INTERNAL COORDINATES (ANGSTROEM)
--------------------------------
 U      0   0   0     0.000000000000     0.00000000     0.00000000
 O      1   0   0     1.887744542122     0.00000000     0.00000000
 O      1   2   0     1.887744582415   179.99999852     0.00000000

---------------------------
INTERNAL COORDINATES (A.U.)
---------------------------
 U      0   0   0     0.000000000000     0.00000000     0.00000000
 O      1   0   0     3.567320195416     0.00000000     0.00000000
 O      1   2   0     3.567320271558   179.99999852     0.00000000



           ************************************************************
           *        Program running with 4 parallel MPI-processes     *
           *              working on a common directory               *
           ************************************************************
------------------------------------------------------------------------------
                   ___                                                        
                  /   \      - P O W E R E D   B Y -                         
                 /     \                                                     
                 |  |  |   _    _      __       _____    __    __             
                 |  |  |  | |  | |    /  \     |  _  \  |  |  /  |          
                  \  \/   | |  | |   /    \    | | | |  |  | /  /          
                 / \  \   | |__| |  /  /\  \   | |_| |  |  |/  /          
                |  |  |   |  __  | /  /__\  \  |    /   |      \           
                |  |  |   | |  | | |   __   |  |    \   |  |\   \          
                \     /   | |  | | |  |  |  |  | |\  \  |  | \   \       
                 \___/    |_|  |_| |__|  |__|  |_| \__\ |__|  \__/        
                                                                              
                      - O R C A' S   B I G   F R I E N D -                    
                                      &                                       
                       - I N T E G R A L  F E E D E R -                       
                                                                              
 v1 FN, 2020, v2 2021, v3 2022-2024                                           
------------------------------------------------------------------------------


----------------------
SHARK INTEGRAL PACKAGE
----------------------

Number of atoms                             ...      3
Number of basis functions                   ...    183
Number of shells                            ...     59
Maximum angular momentum                    ...      4
Integral batch strategy                     ... SHARK/LIBINT Hybrid
RI-J (if used) integral strategy            ... SPLIT-RIJ (Revised 2003 algorithm where possible)
Printlevel                                  ...      1
Contraction scheme used                     ... SEGMENTED contraction
Prescreening option                         ... SCHWARTZ
   Thresh                                   ... 2.500e-11
   Tcut                                     ... 2.500e-12
   Tpresel                                  ... 2.500e-12 
Coulomb Range Separation                    ... NOT USED
Exchange Range Separation                   ... Long Range
   Mu parameter                             ... 3.000e-01
   Scaling (regular/separated)              ... 1.500e-01 8.500e-01
Robust (split-)RI terms used:
  metric    (central integrals)             ... YES
  density   (r.h.s.  integrals)             ... YES
  potential (l.h.s.  integrals)             ... YES
Multipole approximations                    ... NOT USED
Finite Nucleus Model                        ... NOT USED
CABS basis                                  ... NOT available
Auxiliary Coulomb fitting basis             ... AVAILABLE
   # of basis functions in Aux-J            ...    303
   # of shells in Aux-J                     ...     73
   Maximum angular momentum in Aux-J        ...      6
Auxiliary J/K fitting basis                 ... NOT available
Auxiliary Correlation fitting basis         ... NOT available
Auxiliary 'external' fitting basis          ... NOT available

Checking pre-screening integrals            ... done (  0.0 sec) Dimension = 59
   => SHARK Basis and OBASIS are compatible. Storing Pre-screening
Shell pair information
Shell pair cut-off parameter TPreSel        ...   2.5e-12
Total number of shell pairs                 ...      1770
Shell pairs after pre-screening             ...      1699
Total number of primitive shell pairs       ...      4550
Primitive shell pairs kept                  ...      3733
          la=0 lb=0:    249 shell pairs
          la=1 lb=0:    394 shell pairs
          la=1 lb=1:    170 shell pairs
          la=2 lb=0:    243 shell pairs
          la=2 lb=1:    196 shell pairs
          la=2 lb=2:     65 shell pairs
          la=3 lb=0:    132 shell pairs
          la=3 lb=1:    106 shell pairs
          la=3 lb=2:     64 shell pairs
          la=3 lb=3:     21 shell pairs
          la=4 lb=0:     23 shell pairs
          la=4 lb=1:     18 shell pairs
          la=4 lb=2:     11 shell pairs
          la=4 lb=3:      6 shell pairs
          la=4 lb=4:      1 shell pairs

Checking whether 4 symmetric matrices of dimension 183 fit in memory
:Max Core in MB      =   4096.00
 MB in use           =     12.99
 MB left             =   4083.01
 MB needed           =      0.51
 Data fit in memory  = YES
Calculating RI/J V-Matrix + Cholesky decomp.... done (  0.0 sec)
Calculating Nuclear repulsion               ... done (  0.0 sec) ENN=    152.495420762469 Eh

Diagonalization of the overlap matrix:
Smallest eigenvalue                        ... 1.430e-04
Time for diagonalization                   ...    0.002 sec
Threshold for overlap eigenvalues          ... 1.000e-07
Number of eigenvalues below threshold      ... 0
Time for construction of square roots      ...    0.000 sec
Total time needed                          ...    0.003 sec

-------------------
DFT GRID GENERATION
-------------------

General Integration Accuracy     IntAcc      ... 4.388
Radial Grid Type                 RadialGrid  ... OptM3 with GC (2021)
Angular Grid (max. ang.)         AngularGrid ... 4 (Lebedev-302)
Angular grid pruning method      GridPruning ... 4 (adaptive)
Weight generation scheme         WeightScheme... mBecke (2022)
Basis function cutoff            BFCut       ... 1.0000e-11
Integration weight cutoff        WCut        ... 1.0000e-14
Partially contracted basis set               ... off
Rotationally invariant grid construction     ... off
Angular grids for H and He will be reduced by one unit
Diffuse basis detected: some atoms will have their outermost
                        angular grid increased by 1.
Core-polarized basis detected: some atoms will have their core
                               angular grid increased.

Total number of grid points                  ...    30140
Total number of batches                      ...      472
Average number of points per batch           ...       63
Average number of grid points per atom       ...    10047

------------------
NL GRID GENERATION
------------------

General Integration Accuracy     IntAcc      ... 4.004
Radial Grid Type                 RadialGrid  ... OptM3 with GC (2021)
Angular Grid (max. ang.)         AngularGrid ... 2 (Lebedev-110)
Angular grid pruning method      GridPruning ... 4 (adaptive)
Weight generation scheme         WeightScheme... mBecke (2022)
Basis function cutoff            BFCut       ... 1.0000e-10
Integration weight cutoff        WCut        ... 1.0000e-14
Partially contracted basis set               ... off
Rotationally invariant grid construction     ... off
Angular grids for H and He will be reduced by one unit
Diffuse basis detected: some atoms will have their outermost
                        angular grid increased by 1.
Core-polarized basis detected: some atoms will have their core
                               angular grid increased.

Total number of grid points                  ...    13612
Total number of batches                      ...      214
Average number of points per batch           ...       63
Average number of grid points per atom       ...     4537

--------------------
COSX GRID GENERATION
--------------------

GRIDX 1
-------
General Integration Accuracy     IntAcc      ... 3.816
Radial Grid Type                 RadialGrid  ... OptM3 with GC (2021)
Angular Grid (max. ang.)         AngularGrid ... 1 (Lebedev-50)
Angular grid pruning method      GridPruning ... 4 (adaptive)
Weight generation scheme         WeightScheme... mBecke (2022)
Basis function cutoff            BFCut       ... 1.0000e-11
Integration weight cutoff        WCut        ... 1.0000e-14
Partially contracted basis set               ... on
Rotationally invariant grid construction     ... off
Angular grids for H and He will be reduced by one unit
Diffuse basis detected: some atoms will have their outermost
                        angular grid increased by 1.
Core-polarized basis detected: some atoms will have their core
                               angular grid increased.

Total number of grid points                  ...    12682
Total number of batches                      ...      101
Average number of points per batch           ...      125
Average number of grid points per atom       ...     4227
UseSFitting                                  ... on

GRIDX 2
-------
General Integration Accuracy     IntAcc      ... 4.020
Radial Grid Type                 RadialGrid  ... OptM3 with GC (2021)
Angular Grid (max. ang.)         AngularGrid ... 2 (Lebedev-110)
Angular grid pruning method      GridPruning ... 4 (adaptive)
Weight generation scheme         WeightScheme... mBecke (2022)
Basis function cutoff            BFCut       ... 1.0000e-11
Integration weight cutoff        WCut        ... 1.0000e-14
Partially contracted basis set               ... on
Rotationally invariant grid construction     ... off
Angular grids for H and He will be reduced by one unit
Diffuse basis detected: some atoms will have their outermost
                        angular grid increased by 1.
Core-polarized basis detected: some atoms will have their core
                               angular grid increased.

Total number of grid points                  ...    15634
Total number of batches                      ...      125
Average number of points per batch           ...      125
Average number of grid points per atom       ...     5211
UseSFitting                                  ... on

GRIDX 3
-------
General Integration Accuracy     IntAcc      ... 4.338
Radial Grid Type                 RadialGrid  ... OptM3 with GC (2021)
Angular Grid (max. ang.)         AngularGrid ... 3 (Lebedev-194)
Angular grid pruning method      GridPruning ... 4 (adaptive)
Weight generation scheme         WeightScheme... mBecke (2022)
Basis function cutoff            BFCut       ... 1.0000e-11
Integration weight cutoff        WCut        ... 1.0000e-14
Partially contracted basis set               ... on
Rotationally invariant grid construction     ... off
Angular grids for H and He will be reduced by one unit
Diffuse basis detected: some atoms will have their outermost
                        angular grid increased by 1.
Core-polarized basis detected: some atoms will have their core
                               angular grid increased.

Total number of grid points                  ...    20926
Total number of batches                      ...      165
Average number of points per batch           ...      126
Average number of grid points per atom       ...     6975
UseSFitting                                  ... on
Grids setup in   0.3 sec
Initializing property integral containers    ... done (  0.0 sec)

SHARK setup successfully completed in   0.6 seconds

Maximum memory used throughout the entire STARTUP-calculation: 40.2 MB


           ************************************************************
           *        Program running with 4 parallel MPI-processes     *
           *              working on a common directory               *
           ************************************************************
Occupation numbers will be reassigned to an Aufbau configuration
             **** ENERGY FILE WAS UPDATED (UO2.en.tmp) ****
Finished Guess after   0.1 sec
Maximum memory used throughout the entire GUESS-calculation: 21.2 MB


           ************************************************************
           *        Program running with 4 parallel MPI-processes     *
           *              working on a common directory               *
           ************************************************************
----------------------------------------D-I-I-S--------------------------------------------
Iteration    Energy (Eh)           Delta-E    RMSDP     MaxDP     DIISErr   Damp  Time(sec)
-------------------------------------------------------------------------------------------
               ***  Starting incremental Fock matrix formation  ***
    1    -626.5152273859711158     0.00e+00  5.33e-04  1.29e-02  1.97e-01  0.700   1.0
    2    -626.5170967249836167    -1.87e-03  4.32e-04  8.25e-03  1.38e-01  0.700   0.9
                               ***Turning on AO-DIIS***
    3    -626.5184912752458786    -1.39e-03  4.12e-04  4.35e-03  9.67e-02  0.700   0.9
    4    -626.5194548417820215    -9.64e-04  1.23e-03  2.93e-02  6.79e-02  0.000   0.9
    5    -626.5225862726329069    -3.13e-03  3.87e-04  9.58e-03  6.12e-03  0.000   0.9
    6    -626.5226250943888999    -3.88e-05  1.88e-04  4.40e-03  5.33e-03  0.000   0.8
    7    -626.5227216862232353    -9.66e-05  9.76e-05  1.39e-03  1.40e-03  0.000   0.8
    8    -626.5227380263404484    -1.63e-05  6.48e-05  8.28e-04  5.82e-04  0.000   0.8
               *** Restarting incremental Fock matrix formation ***
                             ****Resetting DIIS****
    9    -626.5227440798372527    -6.05e-06  3.94e-05  6.34e-04  3.94e-04  0.000   1.1
   10    -626.5227455547652653    -1.47e-06  1.74e-05  2.92e-04  7.86e-04  0.000   0.9
   11    -626.5227464272660427    -8.73e-07  2.78e-05  3.47e-04  3.02e-04  0.000   0.9
   12    -626.5227473476965088    -9.20e-07  8.17e-06  1.10e-04  9.75e-05  0.000   0.9
   13    -626.5227474091411750    -6.14e-08  2.06e-06  4.11e-05  2.77e-05  0.000   0.9
   14    -626.5227474160595875    -6.92e-09  1.18e-06  2.09e-05  9.50e-06  0.000   0.8
                 **** Energy Check signals convergence ****

               *****************************************************
               *                     SUCCESS                       *
               *           SCF CONVERGED AFTER  14 CYCLES          *
               *****************************************************

Recomputing exchange energy using gridx3       ... done (    0.809 sec)
Old exchange energy                            :    -12.644650547 Eh
New exchange energy                            :    -12.644648092 Eh
Exchange energy change after final integration :      0.000002455 Eh
Total energy after final integration           :   -626.522744962 Eh
             **** ENERGY FILE WAS UPDATED (UO2.en.tmp) ****

----------------
TOTAL SCF ENERGY
----------------

Total Energy       :       -626.52274496181280 Eh          -17048.55062 eV

Components:
Nuclear Repulsion  :        152.49542076246917 Eh            4149.61136 eV
Electronic Energy  :       -779.19667683296507 Eh          -21203.01952 eV
One Electron Energy:      -1305.24662511194219 Eh          -35517.56635 eV
Two Electron Energy:        526.04994827897713 Eh           14314.54683 eV

Virial components:
Potential Energy   :       -924.81907465383210 Eh          -25165.60642 eV
Kinetic Energy     :        298.29632969201936 Eh            8117.05579 eV
Virial Ratio       :          3.10033675442362

DFT components:
N(Alpha)           :       22.999979257598 electrons
N(Beta)            :       22.999979257598 electrons
N(Total)           :       45.999958515197 electrons
NL Energy, E(C,NL) :        0.178508653331 Eh       
E(XC)              :      -32.384111436466 Eh       

---------------
SCF CONVERGENCE
---------------

  Last Energy change         ...    6.9184e-09  Tolerance :   1.0000e-08
  Last MAX-Density change    ...    2.0927e-05  Tolerance :   1.0000e-07
  Last RMS-Density change    ...    1.1783e-06  Tolerance :   5.0000e-09
  Last DIIS Error            ...    9.5006e-06  Tolerance :   5.0000e-07


Total SCF time: 0 days 0 hours 0 min 14 sec 
Finished LeanSCF after  14.2 sec

Maximum memory used throughout the entire LEANSCF-calculation: 21.2 MB

-------------------------   --------------------
FINAL SINGLE POINT ENERGY      -626.522744961813
-------------------------   --------------------



           ************************************************************
           *        Program running with 4 parallel MPI-processes     *
           *              working on a common directory               *
           ************************************************************
------------------------------------------------------------------------------
                         ORCA SCF GRADIENT CALCULATION
------------------------------------------------------------------------------

Nuc. rep. gradient        (SHARK) ... done (  0.0 sec)
HCore & Overlap gradient  (SHARK) ... done (  0.0 sec)
ECP gradient              (SHARK) ... done (  0.3 sec)
Split-RIJ-J gradient      (SHARK) ... done (  0.6 sec)
done (  2.6 sec)
XC gradient                       ... done (  0.2 sec)
NL correlation gradient           ... done (  0.2 sec)

------------------
CARTESIAN GRADIENT
------------------

   1   U   :   -0.000000115    0.000000062    0.000001407
   2   O   :    0.000000064   -0.000000004    0.174521832
   3   O   :    0.000000051   -0.000000058   -0.174523239

Difference to translation invariance:
           :   -0.0000000000    0.0000000000   -0.0000000000

Difference to rotation invariance:
           :   -0.0000001901    0.0000000443   -0.0000000000

Norm of the Cartesian gradient     ...    0.2468121361
RMS gradient                       ...    0.0822707120
[...]
               ***  Starting incremental Fock matrix formation  ***
    1    -626.6052969292713897     0.00e+00  2.55e-06  3.79e-05  5.66e-04  0.700   1.0
    2    -626.6052969448550130    -1.56e-08  2.05e-06  2.99e-05  3.97e-04  0.700   0.9
                               ***Turning on AO-DIIS***
    3    -626.6052969535495549    -8.69e-09  1.64e-06  2.30e-05  2.79e-04  0.700   0.9
                 **** Energy Check signals convergence ****
               *** Restarting incremental Fock matrix formation ***

               *****************************************************
               *                     SUCCESS                       *
               *           SCF CONVERGED AFTER   3 CYCLES          *
               *****************************************************

Recomputing exchange energy using gridx3       ... done (    0.864 sec)
Old exchange energy                            :    -12.736597982 Eh
New exchange energy                            :    -12.736599606 Eh
Exchange energy change after final integration :     -0.000001624 Eh
Total energy after final integration           :   -626.605298578 Eh
             **** ENERGY FILE WAS UPDATED (UO2.en.tmp) ****

----------------
TOTAL SCF ENERGY
----------------

Total Energy       :       -626.60529857789174 Eh          -17050.79702 eV

Components:
Nuclear Repulsion  :        171.58050769162401 Eh            4668.94298 eV
Electronic Energy  :       -798.36318617368295 Eh          -21724.56675 eV
One Electron Energy:      -1343.31830279491896 Eh          -36553.54937 eV
Two Electron Energy:        544.95511662123602 Eh           14828.98261 eV

Virial components:
Potential Energy   :       -926.23026545312018 Eh          -25204.00687 eV
Kinetic Energy     :        299.62496687522838 Eh            8153.20985 eV
Virial Ratio       :          3.09129868285918

DFT components:
N(Alpha)           :       22.999996312641 electrons
N(Beta)            :       22.999996312641 electrons
N(Total)           :       45.999992625283 electrons
NL Energy, E(C,NL) :        0.177381527900 Eh       
E(XC)              :      -32.644505186190 Eh       

---------------
SCF CONVERGENCE
---------------

  Last Energy change         ...    8.6945e-09  Tolerance :   1.0000e-08
  Last MAX-Density change    ...    2.2974e-05  Tolerance :   1.0000e-07
  Last RMS-Density change    ...    1.6377e-06  Tolerance :   5.0000e-09
  Last DIIS Error            ...    2.7873e-04  Tolerance :   5.0000e-07


----------------
ORBITAL ENERGIES
----------------

  NO   OCC          E(Eh)            E(eV) 
   0   2.0000     -19.885452      -541.1107 
   1   2.0000     -19.885355      -541.1080 
   2   2.0000     -12.787070      -347.9539 
   3   2.0000      -8.221759      -223.7254 
   4   2.0000      -8.221759      -223.7254 
   5   2.0000      -8.165007      -222.1811 
   6   2.0000      -4.586789      -124.8129 
   7   2.0000      -4.586788      -124.8128 
   8   2.0000      -4.555141      -123.9517 
   9   2.0000      -4.555141      -123.9517 
  10   2.0000      -4.545037      -123.6767 
  11   2.0000      -2.580920       -70.2304 
  12   2.0000      -1.875982       -51.0481 
  13   2.0000      -1.604476       -43.6600 
  14   2.0000      -1.604476       -43.6600 
  15   2.0000      -1.591060       -43.2950 
  16   2.0000      -1.299522       -35.3618 
  17   2.0000      -1.023580       -27.8530 
  18   2.0000      -1.023580       -27.8530 
  19   2.0000      -1.010420       -27.4949 
  20   2.0000      -1.010420       -27.4949 
  21   2.0000      -0.989561       -26.9273 
  22   2.0000      -0.976831       -26.5809 
  23   0.0000      -0.554888       -15.0993 
  24   0.0000      -0.554888       -15.0993 
  25   0.0000      -0.541061       -14.7230 
  26   0.0000      -0.541023       -14.7220 
  27   0.0000      -0.458878       -12.4867 
  28   0.0000      -0.455021       -12.3818 
  29   0.0000      -0.455020       -12.3817 
  30   0.0000      -0.454876       -12.3778 
  31   0.0000      -0.454876       -12.3778 
  32   0.0000      -0.306078        -8.3288 
  33   0.0000      -0.306078        -8.3288 
*Only the first 10 virtual orbitals were printed.

                    ********************************
                    * MULLIKEN POPULATION ANALYSIS *
                    ********************************

-----------------------
MULLIKEN ATOMIC CHARGES
-----------------------
   0 U :    2.391968
   1 O :   -0.195975
   2 O :   -0.195994
Sum of atomic charges:    2.0000000

--------------------------------
MULLIKEN REDUCED ORBITAL CHARGES
--------------------------------
  0 U s       :     3.967885  s :     3.967885
      pz      :     3.608894  p :    11.576464
      px      :     3.983785
      py      :     3.983785
      dz2     :     2.506202  d :    11.460059
      dxz     :     2.476950
      dyz     :     2.476950
      dx2y2   :     1.999978
      dxy     :     1.999978
      f0      :     1.256915  f :     2.521639
      f+1     :     0.632362
      f-1     :     0.632362
      f+2     :     0.000000
      f-2     :     0.000000
      f+3     :     0.000000
      f-3     :     0.000000
      g0      :     0.014961  g :     0.081985
      g+1     :     0.033511
      g-1     :     0.033511
      g+2     :     0.000001
      g-2     :     0.000001
      g+3     :     0.000000
      g-3     :     0.000000
      g+4     :     0.000000
      g-4     :     0.000000

  1 O s       :     4.026035  s :     4.026035
      pz      :     1.282215  p :     4.128229
      px      :     1.423007
      py      :     1.423007
      dz2     :     0.013004  d :     0.038759
      dxz     :     0.012868
      dyz     :     0.012868
      dx2y2   :     0.000010
      dxy     :     0.000010
      f0      :     0.001355  f :     0.002952
      f+1     :     0.000798
      f-1     :     0.000798
      f+2     :     0.000001
      f-2     :     0.000001
      f+3     :     0.000000
      f-3     :     0.000000

  2 O s       :     4.026004  s :     4.026004
      pz      :     1.282175  p :     4.128282
      px      :     1.423054
      py      :     1.423054
      dz2     :     0.013002  d :     0.038758
      dxz     :     0.012868
      dyz     :     0.012868
      dx2y2   :     0.000010
      dxy     :     0.000010
      f0      :     0.001355  f :     0.002950
      f+1     :     0.000797
      f-1     :     0.000797
      f+2     :     0.000001
      f-2     :     0.000001
      f+3     :     0.000000
      f-3     :     0.000000



                     *******************************
                     * LOEWDIN POPULATION ANALYSIS *
                     *******************************

----------------------
LOEWDIN ATOMIC CHARGES
----------------------
   0 U :    2.437017
   1 O :   -0.218521
   2 O :   -0.218495

-------------------------------
LOEWDIN REDUCED ORBITAL CHARGES
-------------------------------
  0 U s       :     3.482793  s :     3.482793
      pz      :     3.548454  p :    11.136888
      px      :     3.794217
      py      :     3.794217
      dz2     :     2.728677  d :    11.682777
      dxz     :     2.477227
      dyz     :     2.477227
      dx2y2   :     1.999823
      dxy     :     1.999823
      f0      :     1.540180  f :     3.044785
      f+1     :     0.752303
      f-1     :     0.752303
      f+2     :     0.000000
      f-2     :     0.000000
      f+3     :     0.000000
      f-3     :     0.000000
      g0      :     0.072610  g :     0.215741
      g+1     :     0.071565
      g-1     :     0.071565
      g+2     :     0.000000
      g-2     :     0.000000
      g+3     :     0.000000
      g-3     :     0.000000
      g+4     :     0.000000
      g-4     :     0.000000

  1 O s       :     3.604012  s :     3.604012
      pz      :     1.526092  p :     4.233698
      px      :     1.353803
      py      :     1.353803
      dz2     :     0.177799  d :     0.370865
      dxz     :     0.096445
      dyz     :     0.096445
      dx2y2   :     0.000088
      dxy     :     0.000088
      f0      :     0.005759  f :     0.009945
      f+1     :     0.002093
      f-1     :     0.002093
      f+2     :     0.000000
      f-2     :     0.000000
      f+3     :     0.000000
      f-3     :     0.000000

  2 O s       :     3.604088  s :     3.604088
      pz      :     1.526020  p :     4.233720
      px      :     1.353850
      py      :     1.353850
      dz2     :     0.177761  d :     0.370752
      dxz     :     0.096407
      dyz     :     0.096407
      dx2y2   :     0.000088
      dxy     :     0.000088
      f0      :     0.005754  f :     0.009935
      f+1     :     0.002091
      f-1     :     0.002091
      f+2     :     0.000000
      f-2     :     0.000000
      f+3     :     0.000000
      f-3     :     0.000000



                      *****************************
                      * MAYER POPULATION ANALYSIS *
                      *****************************

  NA   - Mulliken gross atomic population
  ZA   - Total nuclear charge
  QA   - Mulliken gross atomic charge
  VA   - Mayer's total valence
  BVA  - Mayer's bonded valence
  FA   - Mayer's free valence

  ATOM       NA         ZA         QA         VA         BVA        FA
  0 U     29.6080    32.0000     2.3920     4.6875     4.6875     0.0000
  1 O      8.1960     8.0000    -0.1960     2.3955     2.3955     0.0000
  2 O      8.1960     8.0000    -0.1960     2.3955     2.3955     0.0000

  Mayer bond orders larger than 0.100000
B(  0-U ,  1-O ) :   2.3437 B(  0-U ,  2-O ) :   2.3437 

-------
TIMINGS
-------

Total SCF time: 0 days 0 hours 0 min 4 sec 

Total time                  ....       4.864 sec
Sum of individual times     ....       3.813 sec  ( 78.4%)

SCF preparation             ....       0.120 sec  (  2.5%)
Fock matrix formation       ....       3.613 sec  ( 74.3%)
  Startup                   ....       0.003 sec  (  0.1% of F)
  Split-RI-J                ....       0.107 sec  (  3.0% of F)
  Chain of spheres X        ....       3.176 sec  ( 87.9% of F)
  XC integration            ....       1.333 sec  ( 36.9% of F)
    XC Preparation          ....       0.051 sec  (  3.8% of XC)
    XC Prescreening         ....       0.071 sec  (  5.3% of XC)
    Basis function eval.    ....       0.738 sec  ( 55.4% of XC)
    Density eval.           ....       0.065 sec  (  4.8% of XC)
    XC-Functional eval.     ....       0.015 sec  (  1.2% of XC)
    XC-Potential eval.      ....       0.284 sec  ( 21.3% of XC)
Diagonalization             ....       0.000 sec  (  0.0%)
Density matrix formation    ....       0.008 sec  (  0.2%)
Total Energy calculation    ....       0.005 sec  (  0.1%)
Population analysis         ....       0.016 sec  (  0.3%)
Orbital Transformation      ....       0.014 sec  (  0.3%)
Orbital Orthonormalization  ....       0.000 sec  (  0.0%)
DIIS solution               ....       0.036 sec  (  0.7%)
Finished LeanSCF after   4.9 sec

Maximum memory used throughout the entire LEANSCF-calculation: 21.8 MB

-------------------------   --------------------
FINAL SINGLE POINT ENERGY      -626.605298577892
-------------------------   --------------------

                                *** OPTIMIZATION RUN DONE ***



           ************************************************************
           *        Program running with 4 parallel MPI-processes     *
           *              working on a common directory               *
           ************************************************************

------------------------------------------------------------------------------
                              ORCA PROPERTY CALCULATIONS
------------------------------------------------------------------------------

GBWName                                 ... UO2.gbw
Number of atoms                         ...      3
Number of basis functions               ...    183
Max core memory                         ...   4096 MB

Electric properties:
Dipole moment                           ... YES
Quadrupole moment                       ...  NO
Static polarizability (Dipole/Dipole)   ...  NO
Static polarizability (Dipole/Quad.)    ...  NO
Static polarizability (Quad./Quad.)     ...  NO
Static polarizability (Velocity)        ...  NO
Static hyperpolarizability              ...  NO

Atomic electric properties:
Dipole moment                           ...  NO
Quadrupole moment                       ...  NO
Static polarizability                   ...  NO

Choice of electric origin               ... Center of mass
Position of electric origin             ...    -0.000000    -0.000001     0.000126

General magnetic properties:
Magnetizability                         ...  NO

EPR properties:
g-Tensor (aka g-matrix)                 ...  NO
Zero-Field splitting spin-orbit         ...  NO
Zero-field splitting spin-spin          ...  NO
Hyperfine couplings                     ...  NO (   0 nuclei)
Quadrupole couplings                    ...  NO (   0 nuclei)
Contact density                         ...  NO (   0 nuclei)

NMR properties:
Chemical shifts                         ...  NO (   0 nuclei)
Spin-rotation constants                 ...  NO (   0 nuclei)
Spin-spin couplings                     ...  NO (   0 nuclei,    0 pairs)

Choice of magnetic origin               ... GIAO
Position of magnetic origin             ...     0.000000     0.000000     0.000000

Properties with geometric perturbations:
SCF Hessian                             ...  NO
IR spectrum                             ...  NO
VCD spectrum                            ...  NO
X-ray spectroscopy properties:
SCF XES/XAS/RIXS spectra                ...  NO

SCF SOC stabilization energy            ...  NO
Diagonal Born-Oppenheimer correction    ...  NO

-------------
DIPOLE MOMENT
-------------

Method             : SCF
Type of density    : Electron Density
Multiplicity       :   1
Irrep              :   0
Energy             :  -626.6052985778917446 Eh
Basis              : AO
                                X                 Y                 Z
Electronic contribution:     -0.000007418      -0.000010257       0.002810444
Nuclear contribution   :      0.000006944       0.000009608      -0.002372491
                        -----------------------------------------
Total Dipole Moment    :     -0.000000475      -0.000000649       0.000437954
                        -----------------------------------------
Magnitude (a.u.)       :      0.000437954
Magnitude (Debye)      :      0.001113192



--------------------
Rotational spectrum 
--------------------
 
Rotational constants in cm-1:             0.000000             0.187158             0.187158 
Rotational constants in MHz :             0.000000          5610.870197          5610.870197 

Dipole components along the rotational axes: 
x,y,z [a.u.] :     0.000438    -0.000001     0.000000 
x,y,z [Debye]:     0.001113    -0.000002     0.000000 

 

Dipole moment calculation done in   0.0 sec 

Maximum memory used throughout the entire PROP-calculation: 16.3 MB

--------------------------------
SUGGESTED CITATIONS FOR THIS RUN
--------------------------------

Below you find a list of papers that are relevant to this ORCA run
We neither can nor want to force you to cite these papers, but we appreciate if you do
You receive ORCA, which is the product of decades of hard work by many enthusiastic individuals, for free
The only thing we kindly ask in return is that you cite our papers,
We deeply appreciate it, if you show your appreciation for ORCA by not just citing the generic ORCA reference.

Please note that relegating all ORCA citations to the supporting information does *not* help us.
SI sections are not indexed - citations you put there will not count into any citation statistics
But we need these citations in order to attract the funding resources that allow us to do what we are doing

Therefore, if you are a happy ORCA user, please consider citing a few of the papers listed below in the main body of your paper

In addition to the list printed below, the program has created the file UO2.bibtex that contains the list in bibtex format
You can import this file easily into all common literature databanks and citation aid programs


List of essential papers. We consider these as the minimum necessary citations

  1. Neese, F.
     Software update: the ORCA program system, version 6.0
     WIRES Comput. Molec. Sci. 2025 15(1), e70019
     doi.org/10.1002/wcms.7019

List of papers to cite with high priority. The work reported in these papers was absolutely
necessary for this run to complete.
Our perspective: the developers of density functionals and basis sets usually get cited in chemistry papers
Good! But without the algorithms to do something with them, the functionals or basis sets would not do anything.
Hence, in our opinion, the algorithm design and method developments papers are equally worthy of getting cited

  1. Neese, F.
     An improvement of the resolution of the identity approximation for the formation of the Coulomb matrix
     J. Comp. Chem. 2003 24(14), 1740-1747
     doi.org/10.1002/jcc.10318
  2. Neese, F.; Wennmohs, F.; Hansen, A.; Becker, U.
     Efficient, approximate and parallel Hartree-Fock and hybrid DFT calculations. A 'chain-of-spheres' algorithm for the Hartree-Fock exchange
     Chem. Phys. 2009 356(1-3), 98-109
     doi.org/10.1016/j.chemphys.2008.10.036
  3. Lehtola, S.; Steigemann, C.; Oliveira, M.; Marques, M.
     Recent developments in Libxc - A comprehensive library of functionals for density functional theory
     Software X 2018 7 , 
     doi.org/10.1016/j.softx.2017.11.002
  4. Helmich-Paris, B.; de Souza, B.; Neese, F.; Izsák, R.
     An improved chain of spheres for exchange algorithm
     J. Chem. Phys. 2021 155(10), 104109
     doi.org/10.1063/5.0058766
  5. Neese, F.
     The SHARK Integral Generation and Digestion System
     J. Comp. Chem. 2022 44(3), 381
     doi.org/10.1002/jcc.26942

List of suggested additional citations. These are papers that are important in the 'surrounding' of 
of this run, or papers that preceded the highly important papers. If you like your results we are grateful for a citation.

  1. Izsak, R.; Neese, F.
     An overlap fitted chain of spheres exchange method
     J. Chem. Phys. 2011 135 , 144105
     doi.org/10.1063/1.3646921
  2. Izsak, R.; Hansen, A.; Neese, F.
     The resolution of identity and chain of spheres approximations for the LPNO-CCSD singles Fock term
     Molec. Phys. 2012 110 , 2413-2417
     doi.org/10.1080/00268976.2012.687466
  3. Neese, F.
     The ORCA program system
     WIRES Comput. Molec. Sci. 2012 2(1), 73-78
     doi.org/10.1002/wcms.81
  4. Izsak, R.; Neese, F.; Klopper, W.
     Robust fitting techniques in the chain of spheres approximation to the Fock exchange: The role of the complementary space
     J. Chem. Phys. 2013 139 , 
     doi.org/10.1063/1.4819264
  5. Neese, F.
     Software update: the ORCA program system, version 4.0
     WIRES Comput. Molec. Sci. 2018 8(1), 1-6
     doi.org/10.1002/wcms.1327
  6. Neese, F.; Wennmohs, F.; Becker, U.; Riplinger, C.
     The ORCA quantum chemistry program package
     J. Chem. Phys. 2020 152(22), 224108
     doi.org/10.1063/5.0004608
  7. Neese, F.
     Software update: The ORCA program system—Version 5.0
     WIRES Comput. Molec. Sci. 2022 12(1), e1606
     doi.org/10.1002/wcms.1606

Timings for individual modules:

Sum of individual times          ...      195.373 sec (=   3.256 min)
Startup calculation              ...        5.818 sec (=   0.097 min)   3.0 %
SCF iterations                   ...      159.782 sec (=   2.663 min)  81.8 %
Property calculations            ...        0.214 sec (=   0.004 min)   0.1 %
SCF Gradient evaluation          ...       29.553 sec (=   0.493 min)  15.1 %
Geometry relaxation              ...        0.007 sec (=   0.000 min)   0.0 %
                             ****ORCA TERMINATED NORMALLY****
TOTAL RUN TIME: 0 days 0 hours 3 minutes 16 seconds 840 msec
